 vasp.6.4.1 05Apr23 (build Jun 07 2023 17:41:37) complex                        
  
 executed on  LinuxIFC_2020_updt4 date 2024.07.22  11:31:57
 running   24 mpi-ranks, on    1 nodes
 distrk:  each k-point on   24 cores,    1 groups
 distr:  one band on NCORE=   1 cores,   24 groups


--------------------------------------------------------------------------------------------------------


 INCAR:
   NBANDS = 72
   GGA = PS
   LSCALAPACK = .FALSE.
   ENMAX = 600
   EDIFF = 1e-8
   PREC = ACCURATE
   ISMEAR = 0
   SIGMA = 0.01
   ALGO = None
   ISYM = 0
   LWAVE = .FALSE.
   LCHARG = .FALSE.
   LREAL = .FALSE.
   LORBIT = 11
   ISIF = 3
   IBRION = -1
   NELMIN = 1
   NELM = 1
   NSW = 1
   EDIFFG = -1.0e-3
   POTIM = 0
   LCALCPOL = .TRUE.
   ISTART = 1

 POTCAR:    PAW_PBE Zr_sv_GW 05Dec2013            
 POTCAR:    PAW_PBE O_GW_new 19Mar2012            
 -----------------------------------------------------------------------------
|                                                                             |
|           W    W    AA    RRRRR   N    N  II  N    N   GGGG   !!!           |
|           W    W   A  A   R    R  NN   N  II  NN   N  G    G  !!!           |
|           W    W  A    A  R    R  N N  N  II  N N  N  G       !!!           |
|           W WW W  AAAAAA  RRRRR   N  N N  II  N  N N  G  GGG   !            |
|           WW  WW  A    A  R   R   N   NN  II  N   NN  G    G                |
|           W    W  A    A  R    R  N    N  II  N    N   GGGG   !!!           |
|                                                                             |
|     For optimal performance we recommend to set                             |
|       NCORE = 2 up to number-of-cores-per-socket                            |
|     NCORE specifies how many cores store one orbital (NPAR=cpu/NCORE).      |
|     This setting can greatly improve the performance of VASP for DFT.       |
|     The default, NCORE=1 might be grossly inefficient on modern             |
|     multi-core architectures or massively parallel machines. Do your        |
|     own testing! More info at https://www.vasp.at/wiki/index.php/NCORE      |
|     Unfortunately you need to use the default for GW and RPA                |
|     calculations (for HF NCORE is supported but not extensively tested      |
|     yet).                                                                   |
|                                                                             |
 -----------------------------------------------------------------------------

 POTCAR:    PAW_PBE Zr_sv_GW 05Dec2013            
   SHA256 =  530e259914d7050c83b95b4bf10dfc0bc47dd8378cd71640f2a5f378d9bfcc14 Zr_sv_GW/POTCAR       
   COPYR  = (c) Copyright 05Dec2013 Georg Kresse                                                    
   COPYR  = This file is part of the software VASP. Any use, copying, and all other rights are regul
   COPYR  = If you do not have a valid VASP license, you may not use, copy or distribute this file. 
   VRHFIN =Zr: 4s4p5s4d                                                                             
   LEXCH  = PE                                                                                      
   EATOM  =  1282.4732 eV,   94.2591 Ry                                                             
                                                                                                    
   TITEL  = PAW_PBE Zr_sv_GW 05Dec2013                                                              
   LULTRA =        F    use ultrasoft PP ?                                                          
   IUNSCR =        1    unscreen: 0-lin 1-nonlin 2-no                                               
   RPACOR =    2.000    partial core radius                                                         
   POMASS =   91.224; ZVAL   =   12.000    mass and valenz                                          
   RCORE  =    2.100    outmost cutoff radius                                                       
   RWIGS  =    2.100; RWIGS  =    1.111    wigner-seitz radius (au A)                               
   ENMAX  =  346.364; ENMIN  =  259.773 eV                                                          
   RCLOC  =    1.507    cutoff for local pot                                                        
   LCOR   =        T    correct aug charges                                                         
   LPAW   =        T    paw PP                                                                      
   EAUG   =  997.710                                                                                
   DEXC   =    0.000                                                                                
   RMAX   =    2.148    core radius for proj-oper                                                   
   RAUG   =    1.300    factor for augmentation sphere                                              
   RDEP   =    2.143    radius for radial grids                                                     
   RDEPT  =    1.649    core radius for aug-charge                                                  
                                                                                                    
   Atomic configuration                                                                             
   12 entries                                                                                       
     n  l   j            E        occ.                                                              
     1  0  0.50    -17818.6685   2.0000                                                             
     2  0  0.50     -2465.6021   2.0000                                                             
     2  1  1.50     -2198.1340   6.0000                                                             
     3  0  0.50      -401.0142   2.0000                                                             
     3  1  1.50      -313.8944   6.0000                                                             
     3  2  2.50      -170.9640  10.0000                                                             
     4  0  0.50       -50.9911   2.0000                                                             
     4  0  0.50       -54.4233   0.0000                                                             
     4  1  1.50       -29.1735   6.0000                                                             
     4  1  1.50       -32.6540   0.0000                                                             
     4  2  2.50        -1.5353   4.0000                                                             
     4  3  2.50        -1.3606   0.0000                                                             
   Description                                                                                      
     l       E           TYP  RCUT    TYP  RCUT                                                     
     0    -50.9911009     23  1.300                                                                 
     0    -54.4233040     23  1.300                                                                 
     1    -29.1735311     23  1.800                                                                 
     1    -32.6539824     23  1.800                                                                 
     1     95.2407820     23  1.800                                                                 
     2     -1.5352847     23  2.000                                                                 
     2     -6.8029130     23  2.000                                                                 
     2    136.0582600     23  2.000                                                                 
     3     13.6058260     23  2.100                                                                 
     3     81.6349560     23  2.100                                                                 
  local pseudopotential read in
  partial core-charges read in
  partial kinetic energy density read in
  kinetic energy density of atom read in
  atomic valenz-charges read in
  non local Contribution for L=           0  read in
    real space projection operators read in
  non local Contribution for L=           0  read in
    real space projection operators read in
  non local Contribution for L=           1  read in
    real space projection operators read in
  non local Contribution for L=           1  read in
    real space projection operators read in
  non local Contribution for L=           1  read in
    real space projection operators read in
  non local Contribution for L=           2  read in
    real space projection operators read in
  non local Contribution for L=           2  read in
    real space projection operators read in
  non local Contribution for L=           2  read in
    real space projection operators read in
  non local Contribution for L=           3  read in
    real space projection operators read in
  non local Contribution for L=           3  read in
    real space projection operators read in
    PAW grid and wavefunctions read in
 
   number of l-projection  operators is LMAX  =          10
   number of lm-projection operators is LMMAX =          40
 
 POTCAR:    PAW_PBE O_GW_new 19Mar2012            
   SHA256 =  c493eb4e480bc193c6922e0b8c73e7a108f48fca6e73afddd92a880a1c2b3374 O_GW_new/POTCAR       
   COPYR  = (c) Copyright 19Mar2012 Georg Kresse                                                    
   COPYR  = This file is part of the software VASP. Any use, copying, and all other rights are regul
   COPYR  = If you do not have a valid VASP license, you may not use, copy or distribute this file. 
   VRHFIN =O: s2p4                                                                                  
   LEXCH  = PE                                                                                      
   EATOM  =   432.3788 eV,   31.7789 Ry                                                             
                                                                                                    
   TITEL  = PAW_PBE O_GW_new 19Mar2012                                                              
   LULTRA =        F    use ultrasoft PP ?                                                          
   IUNSCR =        1    unscreen: 0-lin 1-nonlin 2-no                                               
   RPACOR =    0.800    partial core radius                                                         
   POMASS =   16.000; ZVAL   =    6.000    mass and valenz                                          
   RCORE  =    1.600    outmost cutoff radius                                                       
   RWIGS  =    1.600; RWIGS  =    0.847    wigner-seitz radius (au A)                               
   ENMAX  =  434.431; ENMIN  =  325.824 eV                                                          
   ICORE  =        3    local potential                                                             
   LCOR   =        T    correct aug charges                                                         
   LPAW   =        T    paw PP                                                                      
   EAUG   = 1139.609                                                                                
   DEXC   =    0.000                                                                                
   RMAX   =    1.629    core radius for proj-oper                                                   
   RAUG   =    1.300    factor for augmentation sphere                                              
   RDEP   =    1.652    radius for radial grids                                                     
   RDEPT  =    1.200    core radius for aug-charge                                                  
                                                                                                    
   Atomic configuration                                                                             
    5 entries                                                                                       
     n  l   j            E        occ.                                                              
     1  0  0.50      -514.6923   2.0000                                                             
     2  0  0.50       -23.9615   2.0000                                                             
     2  1  0.50        -9.0305   4.0000                                                             
     3  2  1.50        -9.5241   0.0000                                                             
     4  3  2.50        -9.5241   0.0000                                                             
   Description                                                                                      
     l       E           TYP  RCUT    TYP  RCUT                                                     
     0    -23.9615316     23  1.150                                                                 
     0    -25.3221142     23  1.150                                                                 
     0    244.9048680     23  1.300                                                                 
     1     -9.0304908     23  1.500                                                                 
     1     -6.9258396     23  1.500                                                                 
     1    122.4524340     23  1.500                                                                 
     2     13.6058260     23  1.500                                                                 
     2    190.4815640     23  1.600                                                                 
     3     54.4233040     23  1.400                                                                 
  local pseudopotential read in
  partial core-charges read in
  partial kinetic energy density read in
  kinetic energy density of atom read in
  atomic valenz-charges read in
  non local Contribution for L=           0  read in
    real space projection operators read in
  non local Contribution for L=           0  read in
    real space projection operators read in
  non local Contribution for L=           0  read in
    real space projection operators read in
  non local Contribution for L=           1  read in
    real space projection operators read in
  non local Contribution for L=           1  read in
    real space projection operators read in
  non local Contribution for L=           1  read in
    real space projection operators read in
  non local Contribution for L=           2  read in
    real space projection operators read in
  non local Contribution for L=           2  read in
    real space projection operators read in
    PAW grid and wavefunctions read in
 
   number of l-projection  operators is LMAX  =           8
   number of lm-projection operators is LMMAX =          22
 
 -----------------------------------------------------------------------------
|                                                                             |
|               ----> ADVICE to this user running VASP <----                  |
|                                                                             |
|     You enforced a specific xc type in the INCAR file but a different       |
|     type was found in the POTCAR file.                                      |
|     I HOPE YOU KNOW WHAT YOU ARE DOING!                                     |
|                                                                             |
 -----------------------------------------------------------------------------

  PAW_PBE Zr_sv_GW 05Dec2013            :
 energy of atom  1       EATOM=-1282.4732
 kinetic energy error for atom=    0.0161 (will be added to EATOM!!)
  PAW_PBE O_GW_new 19Mar2012            :
 energy of atom  2       EATOM= -432.3788
 kinetic energy error for atom=    0.0188 (will be added to EATOM!!)
 
 
 POSCAR: Zr               O
  positions in direct lattice
  No initial velocities read in
 exchange correlation table for  LEXCH =       14
   RHO(1)=    0.500       N(1)  =     2000
   RHO(2)=  100.500       N(2)  =     4000

 VTST: version 4.1, (05/19/21)

 CHAIN: initializing optimizer
 
 OPT: Using VASP Dynamics algorithm
 CHAIN: Read ICHAIN            0
 
 POSCAR: Zr               O
  positions in direct lattice
  No initial velocities read in
 


--------------------------------------------------------------------------------------------------------


 ion  position               nearest neighbor table
   1  0.031  0.767  0.252-   9 1.98   6 1.98   8 2.17  12 2.18  10 2.19   5 2.20
   2  0.531  0.233  0.252-  11 1.98   7 1.98   5 2.17  10 2.18  12 2.19   8 2.20
   3  0.968  0.233  0.752-   7 1.98  11 1.98  12 2.17   8 2.18   5 2.19  10 2.20
   4  0.468  0.767  0.752-   6 1.98   9 1.98  10 2.17   5 2.18   8 2.19  12 2.20
   5  0.251  0.038  0.502-   2 2.17   4 2.18   3 2.19   1 2.20
   6  0.238  0.570  0.513-   4 1.98   1 1.98
   7  0.738  0.430  0.513-   3 1.98   2 1.98
   8  0.751  0.962  0.502-   1 2.17   3 2.18   4 2.19   2 2.20
   9  0.262  0.570  0.013-   1 1.98   4 1.98
  10  0.748  0.962  0.002-   4 2.17   2 2.18   1 2.19   3 2.20
  11  0.762  0.430  0.013-   2 1.98   3 1.98
  12  0.248  0.038  0.002-   3 2.17   1 2.18   2 2.19   4 2.20
 

IMPORTANT INFORMATION: All symmetrisations will be switched off!
NOSYMM: (Re-)initialisation of all symmetry stuff for point group C_1.


----------------------------------------------------------------------------------------

                                     Primitive cell                                     

  volume of cell :     134.3851

  direct lattice vectors                    reciprocal lattice vectors
     5.253481259  0.000000000  0.000000000     0.190349970  0.000000000  0.000000000
     0.000000000  5.047799772  0.000000000     0.000000000  0.198106115  0.000000000
     0.000000000  0.000000000  5.067593296     0.000000000  0.000000000  0.197332331

  length of vectors
     5.253481259  5.047799772  5.067593296     0.190349970  0.198106115  0.197332331

  position of ions in fractional coordinates (direct lattice)
     0.031189758  0.767309872  0.251598308
     0.531189718  0.232690671  0.251598201
     0.968324564  0.232714273  0.751588419
     0.468324496  0.767286242  0.751588508
     0.251496363  0.038475847  0.501877414
     0.237983564  0.570494219  0.512883272
     0.737983849  0.429505477  0.512882798
     0.751496256  0.961524017  0.501876595
     0.261543001  0.570497373  0.012886323
     0.748035349  0.961527515  0.001874198
     0.761542725  0.429502299  0.012885866
     0.248035234  0.038472312  0.001875024

  ion indices of the primitive-cell ions
   primitive index   ion index
                 1           1
                 2           2
                 3           3
                 4           4
                 5           5
                 6           6
                 7           7
                 8           8
                 9           9
                10          10
                11          11
                12          12

----------------------------------------------------------------------------------------

 
 
 KPOINTS: K-Spacing Value to Generate K-Mesh: 0.04

Automatic generation of k-mesh.
 Grid dimensions read from file:
 generate k-points for:    3    3    3

 Generating k-lattice:

  Cartesian coordinates                     Fractional coordinates (reciprocal lattice)
     0.063449990  0.000000000  0.000000000     0.333333333  0.000000000  0.000000000
     0.000000000  0.066035372  0.000000000     0.000000000  0.333333333  0.000000000
     0.000000000  0.000000000  0.065777444     0.000000000  0.000000000  0.333333333

  Length of vectors
     0.063449990  0.066035372  0.065777444

  Shift w.r.t. Gamma in fractional coordinates (k-lattice)
     0.000000000  0.000000000  0.000000000

 
 Subroutine IBZKPT returns following result:
 ===========================================
 
 Found     14 irreducible k-points:
 
 Following reciprocal coordinates:
            Coordinates               Weight
  0.000000  0.000000  0.000000      1.000000
  0.333333  0.000000  0.000000      2.000000
  0.000000  0.333333  0.000000      2.000000
  0.333333  0.333333  0.000000      2.000000
 -0.333333  0.333333  0.000000      2.000000
  0.000000  0.000000  0.333333      2.000000
  0.333333  0.000000  0.333333      2.000000
 -0.333333  0.000000  0.333333      2.000000
  0.000000  0.333333  0.333333      2.000000
  0.000000  0.333333 -0.333333      2.000000
  0.333333  0.333333  0.333333      2.000000
 -0.333333  0.333333 -0.333333      2.000000
 -0.333333 -0.333333  0.333333      2.000000
  0.333333 -0.333333 -0.333333      2.000000
 
 Following cartesian coordinates:
            Coordinates               Weight
  0.000000  0.000000  0.000000      1.000000
  0.063450  0.000000  0.000000      2.000000
  0.000000  0.066035  0.000000      2.000000
  0.063450  0.066035  0.000000      2.000000
 -0.063450  0.066035  0.000000      2.000000
  0.000000  0.000000  0.065777      2.000000
  0.063450  0.000000  0.065777      2.000000
 -0.063450  0.000000  0.065777      2.000000
  0.000000  0.066035  0.065777      2.000000
  0.000000  0.066035 -0.065777      2.000000
  0.063450  0.066035  0.065777      2.000000
 -0.063450  0.066035 -0.065777      2.000000
 -0.063450 -0.066035  0.065777      2.000000
  0.063450 -0.066035 -0.065777      2.000000
 
 
 Subroutine IBZKPT_HF returns following result:
 ==============================================
 
 Found     27 k-points in 1st BZ
 the following     27 k-points will be used (e.g. in the exchange kernel)
 Following reciprocal coordinates:   # in IRBZ
  0.000000  0.000000  0.000000    0.03703704   1 t-inv F
  0.333333  0.000000  0.000000    0.03703704   2 t-inv F
  0.000000  0.333333  0.000000    0.03703704   3 t-inv F
  0.333333  0.333333  0.000000    0.03703704   4 t-inv F
 -0.333333  0.333333  0.000000    0.03703704   5 t-inv F
  0.000000  0.000000  0.333333    0.03703704   6 t-inv F
  0.333333  0.000000  0.333333    0.03703704   7 t-inv F
 -0.333333  0.000000  0.333333    0.03703704   8 t-inv F
  0.000000  0.333333  0.333333    0.03703704   9 t-inv F
  0.000000  0.333333 -0.333333    0.03703704  10 t-inv F
  0.333333  0.333333  0.333333    0.03703704  11 t-inv F
 -0.333333  0.333333 -0.333333    0.03703704  12 t-inv F
 -0.333333 -0.333333  0.333333    0.03703704  13 t-inv F
  0.333333 -0.333333 -0.333333    0.03703704  14 t-inv F
 -0.333333  0.000000  0.000000    0.03703704   2 t-inv T
  0.000000 -0.333333  0.000000    0.03703704   3 t-inv T
 -0.333333 -0.333333  0.000000    0.03703704   4 t-inv T
  0.333333 -0.333333  0.000000    0.03703704   5 t-inv T
  0.000000  0.000000 -0.333333    0.03703704   6 t-inv T
 -0.333333  0.000000 -0.333333    0.03703704   7 t-inv T
  0.333333  0.000000 -0.333333    0.03703704   8 t-inv T
  0.000000 -0.333333 -0.333333    0.03703704   9 t-inv T
  0.000000 -0.333333  0.333333    0.03703704  10 t-inv T
 -0.333333 -0.333333 -0.333333    0.03703704  11 t-inv T
  0.333333 -0.333333  0.333333    0.03703704  12 t-inv T
  0.333333  0.333333 -0.333333    0.03703704  13 t-inv T
 -0.333333  0.333333  0.333333    0.03703704  14 t-inv T


--------------------------------------------------------------------------------------------------------




 Dimension of arrays:
   k-points           NKPTS =     14   k-points in BZ     NKDIM =     14   number of bands    NBANDS=     72
   number of dos      NEDOS =    301   number of ions     NIONS =     12
   non local maximal  LDIM  =     10   non local SUM 2l+1 LMDIM =     40
   total plane-waves  NPLWV =  67200
   max r-space proj   IRMAX =      1   max aug-charges    IRDMAX=  11887
   dimension x,y,z NGX =    42 NGY =   40 NGZ =   40
   dimension x,y,z NGXF=    84 NGYF=   80 NGZF=   80
   support grid    NGXF=    84 NGYF=   80 NGZF=   80
   ions per type =               4   8
   NGX,Y,Z   is equivalent  to a cutoff of  13.29, 13.17, 13.12 a.u.
   NGXF,Y,Z  is equivalent  to a cutoff of  26.58, 26.35, 26.24 a.u.

 SYSTEM =  unknown system                          
 POSCAR =  Zr               O                      

 Startparameter for this run:
   NWRITE =      2    write-flag & timer
   PREC   = accura    normal or accurate (medium, high low for compatibility)
   ISTART =      1    job   : 0-new  1-cont  2-samecut
   ICHARG =      0    charge: 1-file 2-atom 10-const
   ISPIN  =      1    spin polarized calculation?
   LNONCOLLINEAR =      F non collinear calculations
   LSORBIT =      F    spin-orbit coupling
   INIWAV =      1    electr: 0-lowe 1-rand  2-diag
   LASPH  =      F    aspherical Exc in radial PAW
 Electronic Relaxation 1
   ENCUT  =  600.0 eV  44.10 Ry    6.64 a.u.  10.49 10.08 10.12*2*pi/ulx,y,z
   ENINI  =  600.0     initial cutoff
   ENAUG  = 1139.6 eV  augmentation charge cutoff
   NELM   =      1;   NELMIN=  1; NELMDL=  0     # of ELM steps 
   EDIFF  = 0.1E-07   stopping-criterion for ELM
   LREAL  =      F    real-space projection
   NLSPLINE    = F    spline interpolate recip. space projectors
   LCOMPAT=      F    compatible to vasp.4.4
   GGA_COMPAT  = T    GGA compatible to vasp.4.4-vasp.4.6
   LMAXPAW     = -100 max onsite density
   LMAXMIX     =    2 max onsite mixed and CHGCAR
   VOSKOWN=      0    Vosko Wilk Nusair interpolation
   ROPT   =    0.00000   0.00000
 Ionic relaxation
   EDIFFG = -.1E-02   stopping-criterion for IOM
   NSW    =      1    number of steps for IOM
   NBLOCK =      1;   KBLOCK =      1    inner block; outer block 
   IBRION =     -1    ionic relax: 0-MD 1-quasi-New 2-CG
   NFREE  =      0    steps in history (QN), initial steepest desc. (CG)
   ISIF   =      3    stress and relaxation
   IWAVPR =     10    prediction:  0-non 1-charg 2-wave 3-comb
   ISYM   =      0    0-nonsym 1-usesym 2-fastsym
   LCORR  =      T    Harris-Foulkes like correction to forces

   POTIM  = 0.0000    time-step for ionic-motion
   TEIN   =    0.0    initial temperature
   TEBEG  =    0.0;   TEEND  =   0.0 temperature during run
   SMASS  =  -3.00    Nose mass-parameter (am)
   estimated Nose-frequenzy (Omega)   =  0.10E-29 period in steps = 0.00E+00 mass=  -0.631E-27a.u.
   SCALEE = 1.0000    scale energy and forces
   NPACO  =    256;   APACO  = 10.0  distance and # of slots for P.C.
   PSTRESS=    0.0 pullay stress

  Mass of Ions in am
   POMASS =  91.22 16.00
  Ionic Valenz
   ZVAL   =  12.00  6.00
  Atomic Wigner-Seitz radii
   RWIGS  =  -1.00 -1.00
  virtual crystal weights 
   VCA    =   1.00  1.00
   NELECT =      96.0000    total number of electrons
   NUPDOWN=      -1.0000    fix difference up-down

 DOS related values:
   EMIN   =  10.00;   EMAX   =-10.00  energy-range for DOS
   EFERMI =   0.00;   METHOD = LEGACY      
   ISMEAR =     0;   SIGMA  =   0.01  broadening in eV -4-tet -1-fermi 0-gaus

 Electronic relaxation 2 (details)
   IALGO  =      2    algorithm
   LDIAG  =      T    sub-space diagonalisation (order eigenvalues)
   LSUBROT=      F    optimize rotation matrix (better conditioning)
   TURBO    =      0    0=normal 1=particle mesh
   IRESTART =      0    0=no restart 2=restart with 2 vectors
   NREBOOT  =      0    no. of reboots
   NMIN     =      0    reboot dimension
   EREF     =   0.00    reference energy to select bands
   IMIX   =      4    mixing-type and parameters
     AMIX     =   0.40;   BMIX     =  1.00
     AMIX_MAG =   1.60;   BMIX_MAG =  1.00
     AMIN     =   0.10
     WC   =   100.;   INIMIX=   1;  MIXPRE=   1;  MAXMIX= -45

 Intra band minimization:
   WEIMIN = 0.0000     energy-eigenvalue tresh-hold
   EBREAK =  0.35E-10  absolut break condition
   DEPER  =   0.30     relativ break condition  

   TIME   =   0.40     timestep for ELM

  volume/ion in A,a.u.               =      11.20        75.57
  Fermi-wavevector in a.u.,A,eV,Ry     =   1.463462  2.765543 29.139898  2.141722
  Thomas-Fermi vector in A             =   2.579554
 
 Write flags
   LWAVE        =      F    write WAVECAR
   LDOWNSAMPLE  =      F    k-point downsampling of WAVECAR
   LCHARG       =      F    write CHGCAR
   LVTOT        =      F    write LOCPOT, total local potential
   LVHAR        =      F    write LOCPOT, Hartree potential only
   LELF         =      F    write electronic localiz. function (ELF)
   LORBIT       =     11    0 simple, 1 ext, 2 COOP (PROOUT), +10 PAW based schemes


 Dipole corrections
   LMONO  =      F    monopole corrections only (constant potential shift)
   LDIPOL =      F    correct potential (dipole corrections)
   IDIPOL =      0    1-x, 2-y, 3-z, 4-all directions 
   EPSILON=  1.0000000 bulk dielectric constant

 Exchange correlation treatment:
   GGA     =    PS    GGA type
   LEXCH   =    14    internal setting for exchange type
   LIBXC   =     F    Libxc                    
   VOSKOWN =     0    Vosko Wilk Nusair interpolation
   LHFCALC =     F    Hartree Fock is set to
   LHFONE  =     F    Hartree Fock one center treatment
   AEXX    =    0.0000 exact exchange contribution

 Linear response parameters
   LEPSILON=     F    determine dielectric tensor
   LRPA    =     F    only Hartree local field effects (RPA)
   LNABLA  =     F    use nabla operator in PAW spheres
   LVEL    =     F    velocity operator in full k-point grid
   CSHIFT  =0.1000    complex shift for real part using Kramers Kronig
   OMEGAMAX=  -1.0    maximum frequency
   DEG_THRESHOLD= 0.2000000E-02 threshold for treating states as degnerate
   RTIME   =   -0.100 relaxation time in fs
  (WPLASMAI=    0.000 imaginary part of plasma frequency in eV, 0.658/RTIME)
   DFIELD  = 0.0000000 0.0000000 0.0000000 field for delta impulse in time
 
  Optional k-point grid parameters
   LKPOINTS_OPT  =     F    use optional k-point grid
   KPOINTS_OPT_MODE=     1    mode for optional k-point grid
 
 Orbital magnetization related:
   ORBITALMAG=     F  switch on orbital magnetization
   LCHIMAG   =     F  perturbation theory with respect to B field
   DQ        =  0.001000  dq finite difference perturbation B field
   LLRAUG    =     F  two centre corrections for induced B field
   LBONE     =     F  B-component reconstruction in AE one-centre
   LVGVCALC  =     T  calculate vGv susceptibility
   LVGVAPPL  =     F  apply vGv susceptibility instead of pGv for G=0

 PEAD related settings:
   LPEAD      =     T    switch on PEAD
   IPEAD      =     4    finite difference order for dpsi/dk
   LCALCPOL   =     T    calculate macroscopic polarization
   LCALCEPS   =     F    calculate dielectric tensor
   EFIELD_PEAD=    0.0000    0.0000    0.0000
   SKIP_EDOTP =     F
   LRPA       =     F
   SKIP_SCF   =     F
 Random number generation:
   RANDOM_GENERATOR = DEFAULT
   PCG_SEED         = not used


--------------------------------------------------------------------------------------------------------


 Static calculation
 charge density and potential will be updated during run
 non-spin polarized calculation
 None: do nothing, only one-electron occupancies are recalculated
    band-by band algorithm
 perform Loewdin sub-space diagonalisation
    ordering is kept fixed
    before iterative eigenvector-optimisation
 modified Broyden-mixing scheme, WC =      100.0
 initial mixing is a Kerker type mixing with AMIX =  0.4000 and BMIX =      1.0000
 Hartree-type preconditioning will be used
 using additional bands           24
 reciprocal scheme for non local part
 use partial core corrections
 calculate Harris-corrections to forces 
   (improved forces if not selfconsistent)
 use gradient corrections 
 use of overlap-Matrix (Vanderbilt PP)
 Gauss-broadening in eV      SIGMA  =   0.01


--------------------------------------------------------------------------------------------------------


  energy-cutoff  :      600.00
  volume of cell :      134.39
      direct lattice vectors                 reciprocal lattice vectors
     5.253481259  0.000000000  0.000000000     0.190349970  0.000000000  0.000000000
     0.000000000  5.047799772  0.000000000     0.000000000  0.198106115  0.000000000
     0.000000000  0.000000000  5.067593296     0.000000000  0.000000000  0.197332331

  length of vectors
     5.253481259  5.047799772  5.067593296     0.190349970  0.198106115  0.197332331


 
 old parameters found on file WAVECAR:
  energy-cutoff  :      600.00
  volume of cell :      134.39
      direct lattice vectors                 reciprocal lattice vectors
     5.253481259  0.000000000  0.000000000     0.190349970  0.000000000  0.000000000
     0.000000000  5.047799772  0.000000000     0.000000000  0.198106115  0.000000000
     0.000000000  0.000000000  5.067593296     0.000000000  0.000000000  0.197332331

  length of vectors

 
 k-points in units of 2pi/SCALE and weight: K-Spacing Value to Generate K-Mesh: 0.04
   0.00000000  0.00000000  0.00000000       0.037
   0.06344999  0.00000000  0.00000000       0.074
   0.00000000  0.06603537  0.00000000       0.074
   0.06344999  0.06603537  0.00000000       0.074
  -0.06344999  0.06603537  0.00000000       0.074
   0.00000000  0.00000000  0.06577744       0.074
   0.06344999  0.00000000  0.06577744       0.074
  -0.06344999  0.00000000  0.06577744       0.074
   0.00000000  0.06603537  0.06577744       0.074
   0.00000000  0.06603537 -0.06577744       0.074
   0.06344999  0.06603537  0.06577744       0.074
  -0.06344999  0.06603537 -0.06577744       0.074
  -0.06344999 -0.06603537  0.06577744       0.074
   0.06344999 -0.06603537 -0.06577744       0.074
 
 k-points in reciprocal lattice and weights: K-Spacing Value to Generate K-Mesh: 0.04
   0.00000000  0.00000000  0.00000000       0.037
   0.33333333  0.00000000  0.00000000       0.074
   0.00000000  0.33333333  0.00000000       0.074
   0.33333333  0.33333333  0.00000000       0.074
  -0.33333333  0.33333333  0.00000000       0.074
   0.00000000  0.00000000  0.33333333       0.074
   0.33333333  0.00000000  0.33333333       0.074
  -0.33333333  0.00000000  0.33333333       0.074
   0.00000000  0.33333333  0.33333333       0.074
   0.00000000  0.33333333 -0.33333333       0.074
   0.33333333  0.33333333  0.33333333       0.074
  -0.33333333  0.33333333 -0.33333333       0.074
  -0.33333333 -0.33333333  0.33333333       0.074
   0.33333333 -0.33333333 -0.33333333       0.074
 
 position of ions in fractional coordinates (direct lattice) 
   0.03118976  0.76730987  0.25159831
   0.53118972  0.23269067  0.25159820
   0.96832456  0.23271427  0.75158842
   0.46832450  0.76728624  0.75158851
   0.25149636  0.03847585  0.50187741
   0.23798356  0.57049422  0.51288327
   0.73798385  0.42950548  0.51288280
   0.75149626  0.96152402  0.50187659
   0.26154300  0.57049737  0.01288632
   0.74803535  0.96152751  0.00187420
   0.76154273  0.42950230  0.01288587
   0.24803523  0.03847231  0.00187502
 
 position of ions in cartesian coordinates  (Angst):
   0.16385481  3.87322660  1.27499790
   2.79059523  1.17457592  1.27499736
   5.08707495  1.17469506  3.80874443
   2.46033396  3.87310732  3.80874488
   1.32123143  0.19421837  2.54331062
   1.25024219  2.87974059  2.59908383
   3.87698432  2.16805765  2.59908143
   3.94797149  4.85358071  2.54330647
   1.37401125  2.87975651  0.06530265
   3.92978968  4.85359837  0.00949768
   4.00075044  2.16804161  0.06530033
   1.30304845  0.19420053  0.00950186
 


--------------------------------------------------------------------------------------------------------


 k-point   1 :   0.0000 0.0000 0.0000  plane waves:    4505
 k-point   2 :   0.3333 0.0000 0.0000  plane waves:    4467
 k-point   3 :   0.0000 0.3333 0.0000  plane waves:    4472
 k-point   4 :   0.3333 0.3333 0.0000  plane waves:    4480
 k-point   5 :  -0.3333 0.3333 0.0000  plane waves:    4480
 k-point   6 :   0.0000 0.0000 0.3333  plane waves:    4482
 k-point   7 :   0.3333 0.0000 0.3333  plane waves:    4472
 k-point   8 :  -0.3333 0.0000 0.3333  plane waves:    4472
 k-point   9 :   0.0000 0.3333 0.3333  plane waves:    4488
 k-point  10 :   0.0000 0.3333-0.3333  plane waves:    4488
 k-point  11 :   0.3333 0.3333 0.3333  plane waves:    4504
 k-point  12 :  -0.3333 0.3333-0.3333  plane waves:    4504
 k-point  13 :  -0.3333-0.3333 0.3333  plane waves:    4504
 k-point  14 :   0.3333-0.3333-0.3333  plane waves:    4504

 maximum and minimum number of plane-waves per node :      4505     4467

 maximum number of plane-waves:      4505
 maximum index in each direction: 
   IXMAX=   10   IYMAX=   10   IZMAX=   10
   IXMIN=  -10   IYMIN=  -10   IZMIN=  -10


 serial   3D FFT for wavefunctions
 parallel 3D FFT for charge:
    minimum data exchange during FFTs selected (reduces bandwidth)


 total amount of memory used by VASP MPI-rank0    80781. kBytes
=======================================================================

   base      :      30000. kBytes
   nonl-proj :      41293. kBytes
   fftplans  :       1136. kBytes
   grid      :       4174. kBytes
   one-center:        921. kBytes
   wavefun   :       3257. kBytes
 
     INWAV:  cpu time      0.2694: real time      0.2911
 Broyden mixing: mesh for mixing (old mesh)
   NGX = 21   NGY = 21   NGZ = 21
  (NGX  = 84   NGY  = 80   NGZ  = 80)
  gives a total of   9261 points

 charge density for first step will be calculated from the start-wavefunctions


--------------------------------------------------------------------------------------------------------


 Maximum index for augmentation-charges          921 (set IRDMAX)


--------------------------------------------------------------------------------------------------------


 initial charge from wavefunction
 First call to EWALD:  gamma=   0.346
 Maximum number of real-space cells 3x 3x 3
 Maximum number of reciprocal cells 3x 3x 3

    FEWALD:  cpu time      0.0013: real time      0.0013


--------------------------------------- Ionic step        1  -------------------------------------------




--------------------------------------- Iteration      1(   1)  ---------------------------------------


    POTLOK:  cpu time      0.0167: real time      0.0778
    SETDIJ:  cpu time      0.0054: real time      0.0054
    EDDIAG:  cpu time      0.0000: real time      0.0000
       DOS:  cpu time      0.0003: real time      0.0004
    --------------------------------------------
      LOOP:  cpu time      0.0225: real time      0.0836

 eigenvalue-minimisations  :     0
 total energy-change (2. order) :-0.1246950E+03  ( 0.0000000E+00)
 number of electron      95.9999966 magnetization 
 augmentation part       -0.8907486 magnetization 

 Free energy of the ion-electron system (eV)
  ---------------------------------------------------
  alpha Z        PSCENC =       409.00558773
  Ewald energy   TEWEN  =     -7200.41442693
  -Hartree energ DENC   =     -1609.71129975
  -exchange      EXHF   =         0.00000000
  -V(xc)+E(xc)   XCENC  =       417.11956994
  PAW double counting   =      9370.32288661    -9387.91709382
  entropy T*S    EENTRO =        -0.00000000
  eigenvalues    EBANDS =      -694.86884329
  atomic energy  EATOM  =      8571.76864569
  Solvation  Ediel_sol  =         0.00000000
  ---------------------------------------------------
  free energy    TOTEN  =      -124.69497383 eV

  energy without entropy =     -124.69497383  energy(sigma->0) =     -124.69497383


--------------------------------------------------------------------------------------------------------




 average (electrostatic) potential at core
  the test charge radii are     0.8780  0.6768
  (the norm of the test charge is              1.0000)
       1 -99.1641       2 -99.1641       3 -99.1612       4 -99.1612       5-111.5441
       6-111.3434       7-111.3434       8-111.5441       9-111.3430      10-111.5438
      11-111.3430      12-111.5438
 
 
 
 E-fermi :   7.5667     XC(G=0): -11.9020     alpha+bet :-15.9354

 Fermi energy:         7.5666805592

 k-point     1 :       0.0000    0.0000    0.0000
  band No.  band energies     occupation 
      1     -40.3576      2.00000
      2     -40.2936      2.00000
      3     -40.2855      2.00000
      4     -40.2811      2.00000
      5     -19.1913      2.00000
      6     -19.1565      2.00000
      7     -19.1048      2.00000
      8     -18.6607      2.00000
      9     -18.5412      2.00000
     10     -18.4940      2.00000
     11     -18.4872      2.00000
     12     -18.4772      2.00000
     13     -18.4029      2.00000
     14     -18.3530      2.00000
     15     -18.2906      2.00000
     16     -18.2641      2.00000
     17     -10.6542      2.00000
     18      -9.5569      2.00000
     19      -9.4032      2.00000
     20      -9.3579      2.00000
     21      -8.4874      2.00000
     22      -8.3751      2.00000
     23      -8.2549      2.00000
     24      -8.1369      2.00000
     25       1.4664      2.00000
     26       1.5015      2.00000
     27       1.5238      2.00000
     28       2.0573      2.00000
     29       2.0953      2.00000
     30       2.1579      2.00000
     31       3.7604      2.00000
     32       4.0881      2.00000
     33       4.2300      2.00000
     34       4.2736      2.00000
     35       4.3780      2.00000
     36       4.5781      2.00000
     37       4.8881      2.00000
     38       5.1939      2.00000
     39       5.7681      2.00000
     40       5.8572      2.00000
     41       5.9512      2.00000
     42       6.1088      2.00000
     43       6.5814      2.00000
     44       6.7856      2.00000
     45       7.1056      2.00000
     46       7.2435      2.00000
     47       7.3572      2.00000
     48       7.3598      2.00000
     49      10.7477      0.00000
     50      11.1684      0.00000
     51      11.3553      0.00000
     52      11.4187      0.00000
     53      11.5394      0.00000
     54      12.2406      0.00000
     55      12.2733      0.00000
     56      12.6342      0.00000
     57      12.8121      0.00000
     58      12.8930      0.00000
     59      13.1715      0.00000
     60      13.2156      0.00000
     61      13.7388      0.00000
     62      13.9641      0.00000
     63      14.4483      0.00000
     64      15.2935      0.00000
     65      15.7995      0.00000
     66      16.3631      0.00000
     67      16.6486      0.00000
     68      17.1015      0.00000
     69      18.1540      0.00000
     70      19.3055      0.00000
     71      20.2592      0.00000
     72      20.4893      0.00000

 k-point     2 :       0.3333    0.0000    0.0000
  band No.  band energies     occupation 
      1     -40.3424      2.00000
      2     -40.3117      2.00000
      3     -40.2822      2.00000
      4     -40.2810      2.00000
      5     -19.0633      2.00000
      6     -18.9946      2.00000
      7     -18.9850      2.00000
      8     -18.7934      2.00000
      9     -18.7075      2.00000
     10     -18.6519      2.00000
     11     -18.4507      2.00000
     12     -18.4075      2.00000
     13     -18.4033      2.00000
     14     -18.3631      2.00000
     15     -18.3457      2.00000
     16     -18.3446      2.00000
     17     -10.1627      2.00000
     18      -9.3097      2.00000
     19      -9.2824      2.00000
     20      -9.1314      2.00000
     21      -8.8618      2.00000
     22      -8.6202      2.00000
     23      -8.5071      2.00000
     24      -8.4538      2.00000
     25       1.9285      2.00000
     26       2.0164      2.00000
     27       2.3338      2.00000
     28       2.4759      2.00000
     29       2.5188      2.00000
     30       2.9683      2.00000
     31       2.9911      2.00000
     32       3.3694      2.00000
     33       3.5064      2.00000
     34       3.5101      2.00000
     35       4.4552      2.00000
     36       4.6128      2.00000
     37       4.6670      2.00000
     38       4.9143      2.00000
     39       4.9642      2.00000
     40       5.1721      2.00000
     41       6.3626      2.00000
     42       6.4365      2.00000
     43       6.6298      2.00000
     44       6.6602      2.00000
     45       6.9611      2.00000
     46       7.0021      2.00000
     47       7.2822      2.00000
     48       7.3840      2.00000
     49      11.0785      0.00000
     50      11.1921      0.00000
     51      11.7159      0.00000
     52      11.7506      0.00000
     53      11.7806      0.00000
     54      12.1044      0.00000
     55      12.4723      0.00000
     56      12.7425      0.00000
     57      12.8109      0.00000
     58      13.1915      0.00000
     59      13.4568      0.00000
     60      13.6621      0.00000
     61      13.9798      0.00000
     62      14.0792      0.00000
     63      14.2400      0.00000
     64      15.3328      0.00000
     65      15.7733      0.00000
     66      16.0956      0.00000
     67      16.4410      0.00000
     68      16.7198      0.00000
     69      17.1379      0.00000
     70      17.5389      0.00000
     71      19.3663      0.00000
     72      20.5422      0.00000

 k-point     3 :       0.0000    0.3333    0.0000
  band No.  band energies     occupation 
      1     -40.3452      2.00000
      2     -40.3060      2.00000
      3     -40.2845      2.00000
      4     -40.2816      2.00000
      5     -19.0880      2.00000
      6     -19.0673      2.00000
      7     -19.0180      2.00000
      8     -18.7754      2.00000
      9     -18.5782      2.00000
     10     -18.5331      2.00000
     11     -18.4972      2.00000
     12     -18.4856      2.00000
     13     -18.4470      2.00000
     14     -18.3759      2.00000
     15     -18.3298      2.00000
     16     -18.2984      2.00000
     17     -10.2660      2.00000
     18      -9.4216      2.00000
     19      -9.4210      2.00000
     20      -9.2819      2.00000
     21      -8.7435      2.00000
     22      -8.5106      2.00000
     23      -8.4118      2.00000
     24      -8.2770      2.00000
     25       1.8905      2.00000
     26       2.0619      2.00000
     27       2.2424      2.00000
     28       2.2959      2.00000
     29       2.4884      2.00000
     30       3.1543      2.00000
     31       3.4134      2.00000
     32       3.4667      2.00000
     33       3.7254      2.00000
     34       3.7437      2.00000
     35       4.1659      2.00000
     36       4.6408      2.00000
     37       5.1357      2.00000
     38       5.2286      2.00000
     39       5.5007      2.00000
     40       5.6948      2.00000
     41       5.7751      2.00000
     42       5.9393      2.00000
     43       6.0861      2.00000
     44       6.3079      2.00000
     45       6.3748      2.00000
     46       6.8670      2.00000
     47       6.9943      2.00000
     48       7.2904      2.00000
     49      11.0086      0.00000
     50      11.5275      0.00000
     51      11.6563      0.00000
     52      11.7095      0.00000
     53      11.9251      0.00000
     54      12.0312      0.00000
     55      12.4297      0.00000
     56      12.9002      0.00000
     57      13.0151      0.00000
     58      13.1381      0.00000
     59      13.4131      0.00000
     60      13.4629      0.00000
     61      13.6784      0.00000
     62      14.1646      0.00000
     63      14.4233      0.00000
     64      15.1687      0.00000
     65      15.4813      0.00000
     66      15.7468      0.00000
     67      16.5893      0.00000
     68      16.8210      0.00000
     69      17.0965      0.00000
     70      17.9396      0.00000
     71      19.3913      0.00000
     72      19.9127      0.00000

 k-point     4 :       0.3333    0.3333    0.0000
  band No.  band energies     occupation 
      1     -40.3339      2.00000
      2     -40.3131      2.00000
      3     -40.2867      2.00000
      4     -40.2839      2.00000
      5     -18.9850      2.00000
      6     -18.9666      2.00000
      7     -18.9542      2.00000
      8     -18.8070      2.00000
      9     -18.7648      2.00000
     10     -18.7142      2.00000
     11     -18.4781      2.00000
     12     -18.4122      2.00000
     13     -18.3958      2.00000
     14     -18.3955      2.00000
     15     -18.3562      2.00000
     16     -18.3067      2.00000
     17      -9.9126      2.00000
     18      -9.3279      2.00000
     19      -9.2212      2.00000
     20      -9.1113      2.00000
     21      -8.9898      2.00000
     22      -8.6819      2.00000
     23      -8.6678      2.00000
     24      -8.5043      2.00000
     25       2.2622      2.00000
     26       2.4654      2.00000
     27       2.5544      2.00000
     28       2.6618      2.00000
     29       2.7335      2.00000
     30       3.2727      2.00000
     31       3.4061      2.00000
     32       3.5609      2.00000
     33       3.6390      2.00000
     34       3.7816      2.00000
     35       4.1159      2.00000
     36       4.3497      2.00000
     37       4.5600      2.00000
     38       5.0538      2.00000
     39       5.2737      2.00000
     40       5.3806      2.00000
     41       5.4509      2.00000
     42       5.7104      2.00000
     43       5.9463      2.00000
     44       6.4399      2.00000
     45       6.4672      2.00000
     46       6.6409      2.00000
     47       6.8688      2.00000
     48       7.1634      2.00000
     49      11.0413      0.00000
     50      11.3867      0.00000
     51      11.4899      0.00000
     52      11.6756      0.00000
     53      11.9776      0.00000
     54      12.0726      0.00000
     55      12.4850      0.00000
     56      12.7109      0.00000
     57      13.2821      0.00000
     58      13.3577      0.00000
     59      13.6857      0.00000
     60      13.9421      0.00000
     61      14.0007      0.00000
     62      14.1138      0.00000
     63      14.2680      0.00000
     64      14.3057      0.00000
     65      16.2565      0.00000
     66      16.4710      0.00000
     67      16.5276      0.00000
     68      16.8455      0.00000
     69      17.4692      0.00000
     70      17.5388      0.00000
     71      17.8469      0.00000
     72      18.6865      0.00000

 k-point     5 :      -0.3333    0.3333    0.0000
  band No.  band energies     occupation 
      1     -40.3339      2.00000
      2     -40.3131      2.00000
      3     -40.2867      2.00000
      4     -40.2839      2.00000
      5     -18.9850      2.00000
      6     -18.9666      2.00000
      7     -18.9542      2.00000
      8     -18.8070      2.00000
      9     -18.7648      2.00000
     10     -18.7142      2.00000
     11     -18.4781      2.00000
     12     -18.4122      2.00000
     13     -18.3958      2.00000
     14     -18.3955      2.00000
     15     -18.3562      2.00000
     16     -18.3067      2.00000
     17      -9.9126      2.00000
     18      -9.3279      2.00000
     19      -9.2212      2.00000
     20      -9.1113      2.00000
     21      -8.9898      2.00000
     22      -8.6819      2.00000
     23      -8.6678      2.00000
     24      -8.5043      2.00000
     25       2.2622      2.00000
     26       2.4654      2.00000
     27       2.5544      2.00000
     28       2.6618      2.00000
     29       2.7335      2.00000
     30       3.2727      2.00000
     31       3.4061      2.00000
     32       3.5609      2.00000
     33       3.6390      2.00000
     34       3.7816      2.00000
     35       4.1159      2.00000
     36       4.3497      2.00000
     37       4.5600      2.00000
     38       5.0538      2.00000
     39       5.2737      2.00000
     40       5.3806      2.00000
     41       5.4509      2.00000
     42       5.7104      2.00000
     43       5.9463      2.00000
     44       6.4399      2.00000
     45       6.4672      2.00000
     46       6.6409      2.00000
     47       6.8688      2.00000
     48       7.1634      2.00000
     49      11.0413      0.00000
     50      11.3867      0.00000
     51      11.4899      0.00000
     52      11.6756      0.00000
     53      11.9776      0.00000
     54      12.0726      0.00000
     55      12.4850      0.00000
     56      12.7109      0.00000
     57      13.2821      0.00000
     58      13.3577      0.00000
     59      13.6857      0.00000
     60      13.9421      0.00000
     61      14.0007      0.00000
     62      14.1138      0.00000
     63      14.2680      0.00000
     64      14.3057      0.00000
     65      16.2565      0.00000
     66      16.4712      0.00000
     67      16.5277      0.00000
     68      16.8456      0.00000
     69      17.4704      0.00000
     70      17.5390      0.00000
     71      17.8477      0.00000
     72      18.7154      0.00000

 k-point     6 :       0.0000    0.0000    0.3333
  band No.  band energies     occupation 
      1     -40.3384      2.00000
      2     -40.3000      2.00000
      3     -40.2916      2.00000
      4     -40.2875      2.00000
      5     -19.0565      2.00000
      6     -19.0156      2.00000
      7     -18.9592      2.00000
      8     -18.8330      2.00000
      9     -18.6455      2.00000
     10     -18.6361      2.00000
     11     -18.4899      2.00000
     12     -18.4568      2.00000
     13     -18.4223      2.00000
     14     -18.3612      2.00000
     15     -18.3437      2.00000
     16     -18.2968      2.00000
     17     -10.1222      2.00000
     18      -9.3361      2.00000
     19      -9.2100      2.00000
     20      -9.1950      2.00000
     21      -8.8547      2.00000
     22      -8.6737      2.00000
     23      -8.5033      2.00000
     24      -8.4556      2.00000
     25       2.0543      2.00000
     26       2.0928      2.00000
     27       2.1270      2.00000
     28       2.5142      2.00000
     29       2.7492      2.00000
     30       2.9227      2.00000
     31       3.1278      2.00000
     32       3.3534      2.00000
     33       3.7012      2.00000
     34       3.8387      2.00000
     35       4.5802      2.00000
     36       4.5919      2.00000
     37       4.6708      2.00000
     38       5.2132      2.00000
     39       5.2180      2.00000
     40       5.5316      2.00000
     41       5.6760      2.00000
     42       5.7970      2.00000
     43       6.0672      2.00000
     44       6.1925      2.00000
     45       6.8720      2.00000
     46       7.0797      2.00000
     47       7.1261      2.00000
     48       7.2563      2.00000
     49      11.4122      0.00000
     50      11.6139      0.00000
     51      11.6433      0.00000
     52      11.7248      0.00000
     53      11.7581      0.00000
     54      12.1787      0.00000
     55      12.3511      0.00000
     56      12.5281      0.00000
     57      12.9364      0.00000
     58      13.3443      0.00000
     59      13.4555      0.00000
     60      13.5479      0.00000
     61      13.9066      0.00000
     62      14.1670      0.00000
     63      14.4689      0.00000
     64      15.5937      0.00000
     65      15.7341      0.00000
     66      15.8698      0.00000
     67      16.0662      0.00000
     68      16.4804      0.00000
     69      17.1445      0.00000
     70      17.7522      0.00000
     71      19.7455      0.00000
     72      21.1166      0.00000

 k-point     7 :       0.3333    0.0000    0.3333
  band No.  band energies     occupation 
      1     -40.3271      2.00000
      2     -40.3044      2.00000
      3     -40.2963      2.00000
      4     -40.2896      2.00000
      5     -19.0446      2.00000
      6     -19.0034      2.00000
      7     -18.9393      2.00000
      8     -18.8346      2.00000
      9     -18.7806      2.00000
     10     -18.5448      2.00000
     11     -18.5082      2.00000
     12     -18.4193      2.00000
     13     -18.3979      2.00000
     14     -18.3893      2.00000
     15     -18.3576      2.00000
     16     -18.3069      2.00000
     17      -9.9137      2.00000
     18      -9.4687      2.00000
     19      -9.3576      2.00000
     20      -9.2956      2.00000
     21      -8.7588      2.00000
     22      -8.6607      2.00000
     23      -8.4577      2.00000
     24      -8.4391      2.00000
     25       2.2876      2.00000
     26       2.2963      2.00000
     27       2.4897      2.00000
     28       2.5931      2.00000
     29       2.8952      2.00000
     30       2.9626      2.00000
     31       3.1348      2.00000
     32       3.5096      2.00000
     33       3.7647      2.00000
     34       3.9344      2.00000
     35       4.1641      2.00000
     36       4.4010      2.00000
     37       4.5728      2.00000
     38       4.6417      2.00000
     39       5.3163      2.00000
     40       5.4228      2.00000
     41       5.4449      2.00000
     42       5.7440      2.00000
     43       5.9852      2.00000
     44       6.3042      2.00000
     45       6.7352      2.00000
     46       7.0691      2.00000
     47       7.0743      2.00000
     48       7.1414      2.00000
     49      11.2273      0.00000
     50      11.2478      0.00000
     51      11.3653      0.00000
     52      11.4948      0.00000
     53      11.9732      0.00000
     54      12.1177      0.00000
     55      12.4634      0.00000
     56      12.5082      0.00000
     57      13.2228      0.00000
     58      13.3632      0.00000
     59      13.4390      0.00000
     60      13.7239      0.00000
     61      14.2774      0.00000
     62      14.2988      0.00000
     63      14.5249      0.00000
     64      15.1702      0.00000
     65      15.4288      0.00000
     66      16.1319      0.00000
     67      16.3551      0.00000
     68      16.7695      0.00000
     69      17.4561      0.00000
     70      18.3471      0.00000
     71      18.5273      0.00000
     72      19.0457      0.00000

 k-point     8 :      -0.3333    0.0000    0.3333
  band No.  band energies     occupation 
      1     -40.3271      2.00000
      2     -40.3044      2.00000
      3     -40.2963      2.00000
      4     -40.2896      2.00000
      5     -19.0446      2.00000
      6     -19.0034      2.00000
      7     -18.9393      2.00000
      8     -18.8346      2.00000
      9     -18.7806      2.00000
     10     -18.5448      2.00000
     11     -18.5082      2.00000
     12     -18.4193      2.00000
     13     -18.3980      2.00000
     14     -18.3891      2.00000
     15     -18.3577      2.00000
     16     -18.3069      2.00000
     17      -9.9137      2.00000
     18      -9.4685      2.00000
     19      -9.3578      2.00000
     20      -9.2957      2.00000
     21      -8.7586      2.00000
     22      -8.6605      2.00000
     23      -8.4578      2.00000
     24      -8.4392      2.00000
     25       2.2876      2.00000
     26       2.2964      2.00000
     27       2.4897      2.00000
     28       2.5929      2.00000
     29       2.8952      2.00000
     30       2.9624      2.00000
     31       3.1349      2.00000
     32       3.5095      2.00000
     33       3.7649      2.00000
     34       3.9347      2.00000
     35       4.1640      2.00000
     36       4.4009      2.00000
     37       4.5727      2.00000
     38       4.6415      2.00000
     39       5.3164      2.00000
     40       5.4229      2.00000
     41       5.4449      2.00000
     42       5.7442      2.00000
     43       5.9853      2.00000
     44       6.3040      2.00000
     45       6.7350      2.00000
     46       7.0689      2.00000
     47       7.0745      2.00000
     48       7.1416      2.00000
     49      11.2273      0.00000
     50      11.2478      0.00000
     51      11.3653      0.00000
     52      11.4948      0.00000
     53      11.9733      0.00000
     54      12.1175      0.00000
     55      12.4636      0.00000
     56      12.5081      0.00000
     57      13.2228      0.00000
     58      13.3631      0.00000
     59      13.4391      0.00000
     60      13.7240      0.00000
     61      14.2773      0.00000
     62      14.2989      0.00000
     63      14.5249      0.00000
     64      15.1701      0.00000
     65      15.4288      0.00000
     66      16.1319      0.00000
     67      16.3552      0.00000
     68      16.7695      0.00000
     69      17.4558      0.00000
     70      18.3464      0.00000
     71      18.5086      0.00000
     72      18.9955      0.00000

 k-point     9 :       0.0000    0.3333    0.3333
  band No.  band energies     occupation 
      1     -40.3294      2.00000
      2     -40.3006      2.00000
      3     -40.2976      2.00000
      4     -40.2899      2.00000
      5     -19.0142      2.00000
      6     -18.9859      2.00000
      7     -18.8992      2.00000
      8     -18.8936      2.00000
      9     -18.7102      2.00000
     10     -18.6179      2.00000
     11     -18.5629      2.00000
     12     -18.4583      2.00000
     13     -18.4044      2.00000
     14     -18.3760      2.00000
     15     -18.3143      2.00000
     16     -18.3027      2.00000
     17      -9.8631      2.00000
     18      -9.2787      2.00000
     19      -9.2458      2.00000
     20      -9.2022      2.00000
     21      -8.8692      2.00000
     22      -8.8397      2.00000
     23      -8.5750      2.00000
     24      -8.5683      2.00000
     25       2.4468      2.00000
     26       2.5231      2.00000
     27       2.5552      2.00000
     28       2.8381      2.00000
     29       2.9533      2.00000
     30       3.3001      2.00000
     31       3.3835      2.00000
     32       3.5511      2.00000
     33       3.6922      2.00000
     34       3.7465      2.00000
     35       4.1715      2.00000
     36       4.4615      2.00000
     37       4.7079      2.00000
     38       5.1996      2.00000
     39       5.3579      2.00000
     40       5.4861      2.00000
     41       5.5385      2.00000
     42       5.6924      2.00000
     43       5.8460      2.00000
     44       5.9399      2.00000
     45       6.2362      2.00000
     46       6.2611      2.00000
     47       6.4450      2.00000
     48       6.4956      2.00000
     49      11.5301      0.00000
     50      11.6316      0.00000
     51      11.8527      0.00000
     52      11.8566      0.00000
     53      12.1110      0.00000
     54      12.2056      0.00000
     55      12.2564      0.00000
     56      12.6485      0.00000
     57      13.2645      0.00000
     58      13.3058      0.00000
     59      13.8297      0.00000
     60      13.8414      0.00000
     61      13.9840      0.00000
     62      14.2488      0.00000
     63      14.2994      0.00000
     64      15.1235      0.00000
     65      15.1895      0.00000
     66      15.3552      0.00000
     67      16.5169      0.00000
     68      16.5505      0.00000
     69      17.6215      0.00000
     70      18.2819      0.00000
     71      18.4095      0.00000
     72      18.8401      0.00000

 k-point    10 :       0.0000    0.3333   -0.3333
  band No.  band energies     occupation 
      1     -40.3294      2.00000
      2     -40.3006      2.00000
      3     -40.2976      2.00000
      4     -40.2899      2.00000
      5     -19.0142      2.00000
      6     -18.9859      2.00000
      7     -18.8992      2.00000
      8     -18.8936      2.00000
      9     -18.7102      2.00000
     10     -18.6179      2.00000
     11     -18.5629      2.00000
     12     -18.4583      2.00000
     13     -18.4044      2.00000
     14     -18.3760      2.00000
     15     -18.3143      2.00000
     16     -18.3027      2.00000
     17      -9.8631      2.00000
     18      -9.2787      2.00000
     19      -9.2458      2.00000
     20      -9.2022      2.00000
     21      -8.8692      2.00000
     22      -8.8397      2.00000
     23      -8.5750      2.00000
     24      -8.5683      2.00000
     25       2.4468      2.00000
     26       2.5231      2.00000
     27       2.5552      2.00000
     28       2.8381      2.00000
     29       2.9533      2.00000
     30       3.3001      2.00000
     31       3.3835      2.00000
     32       3.5511      2.00000
     33       3.6922      2.00000
     34       3.7465      2.00000
     35       4.1715      2.00000
     36       4.4615      2.00000
     37       4.7079      2.00000
     38       5.1996      2.00000
     39       5.3579      2.00000
     40       5.4861      2.00000
     41       5.5385      2.00000
     42       5.6924      2.00000
     43       5.8460      2.00000
     44       5.9399      2.00000
     45       6.2362      2.00000
     46       6.2611      2.00000
     47       6.4450      2.00000
     48       6.4956      2.00000
     49      11.5301      0.00000
     50      11.6316      0.00000
     51      11.8527      0.00000
     52      11.8566      0.00000
     53      12.1110      0.00000
     54      12.2056      0.00000
     55      12.2564      0.00000
     56      12.6485      0.00000
     57      13.2645      0.00000
     58      13.3058      0.00000
     59      13.8297      0.00000
     60      13.8414      0.00000
     61      13.9840      0.00000
     62      14.2488      0.00000
     63      14.2994      0.00000
     64      15.1235      0.00000
     65      15.1895      0.00000
     66      15.3552      0.00000
     67      16.5170      0.00000
     68      16.5505      0.00000
     69      17.6222      0.00000
     70      18.2827      0.00000
     71      18.4143      0.00000
     72      18.8613      0.00000

 k-point    11 :       0.3333    0.3333    0.3333
  band No.  band energies     occupation 
      1     -40.3215      2.00000
      2     -40.3065      2.00000
      3     -40.2964      2.00000
      4     -40.2932      2.00000
      5     -19.0787      2.00000
      6     -19.0408      2.00000
      7     -19.0266      2.00000
      8     -18.9220      2.00000
      9     -18.6644      2.00000
     10     -18.5005      2.00000
     11     -18.4595      2.00000
     12     -18.4283      2.00000
     13     -18.3822      2.00000
     14     -18.3635      2.00000
     15     -18.3222      2.00000
     16     -18.3167      2.00000
     17      -9.8666      2.00000
     18      -9.5945      2.00000
     19      -9.5184      2.00000
     20      -9.4256      2.00000
     21      -8.6283      2.00000
     22      -8.5904      2.00000
     23      -8.4675      2.00000
     24      -8.3344      2.00000
     25       2.5045      2.00000
     26       2.6653      2.00000
     27       2.8080      2.00000
     28       2.8388      2.00000
     29       2.8957      2.00000
     30       3.1362      2.00000
     31       3.3011      2.00000
     32       3.3450      2.00000
     33       3.8589      2.00000
     34       4.0881      2.00000
     35       4.2191      2.00000
     36       4.3875      2.00000
     37       4.7999      2.00000
     38       5.1212      2.00000
     39       5.3260      2.00000
     40       5.4583      2.00000
     41       5.6122      2.00000
     42       5.7194      2.00000
     43       5.8305      2.00000
     44       5.9082      2.00000
     45       6.0407      2.00000
     46       6.2124      2.00000
     47       6.3600      2.00000
     48       6.4927      2.00000
     49      11.2868      0.00000
     50      11.4179      0.00000
     51      11.5158      0.00000
     52      11.6198      0.00000
     53      11.8716      0.00000
     54      11.9241      0.00000
     55      12.2400      0.00000
     56      12.3550      0.00000
     57      13.2606      0.00000
     58      13.3028      0.00000
     59      13.3734      0.00000
     60      13.6588      0.00000
     61      14.4612      0.00000
     62      14.6226      0.00000
     63      14.7230      0.00000
     64      14.9342      0.00000
     65      15.9351      0.00000
     66      16.0612      0.00000
     67      16.5709      0.00000
     68      17.0703      0.00000
     69      17.2125      0.00000
     70      17.5999      0.00000
     71      17.6775      0.00000
     72      18.0173      0.00000

 k-point    12 :      -0.3333    0.3333   -0.3333
  band No.  band energies     occupation 
      1     -40.3215      2.00000
      2     -40.3065      2.00000
      3     -40.2964      2.00000
      4     -40.2932      2.00000
      5     -19.0787      2.00000
      6     -19.0408      2.00000
      7     -19.0266      2.00000
      8     -18.9220      2.00000
      9     -18.6644      2.00000
     10     -18.5005      2.00000
     11     -18.4595      2.00000
     12     -18.4283      2.00000
     13     -18.3822      2.00000
     14     -18.3635      2.00000
     15     -18.3222      2.00000
     16     -18.3167      2.00000
     17      -9.8666      2.00000
     18      -9.5945      2.00000
     19      -9.5184      2.00000
     20      -9.4256      2.00000
     21      -8.6283      2.00000
     22      -8.5904      2.00000
     23      -8.4675      2.00000
     24      -8.3344      2.00000
     25       2.5045      2.00000
     26       2.6653      2.00000
     27       2.8080      2.00000
     28       2.8388      2.00000
     29       2.8957      2.00000
     30       3.1361      2.00000
     31       3.3011      2.00000
     32       3.3450      2.00000
     33       3.8589      2.00000
     34       4.0881      2.00000
     35       4.2191      2.00000
     36       4.3875      2.00000
     37       4.7999      2.00000
     38       5.1212      2.00000
     39       5.3260      2.00000
     40       5.4583      2.00000
     41       5.6122      2.00000
     42       5.7194      2.00000
     43       5.8305      2.00000
     44       5.9082      2.00000
     45       6.0407      2.00000
     46       6.2124      2.00000
     47       6.3600      2.00000
     48       6.4927      2.00000
     49      11.2868      0.00000
     50      11.4179      0.00000
     51      11.5158      0.00000
     52      11.6198      0.00000
     53      11.8717      0.00000
     54      11.9241      0.00000
     55      12.2400      0.00000
     56      12.3550      0.00000
     57      13.2606      0.00000
     58      13.3028      0.00000
     59      13.3734      0.00000
     60      13.6588      0.00000
     61      14.4612      0.00000
     62      14.6226      0.00000
     63      14.7230      0.00000
     64      14.9342      0.00000
     65      15.9350      0.00000
     66      16.0612      0.00000
     67      16.5710      0.00000
     68      17.0676      0.00000
     69      17.2133      0.00000
     70      17.6006      0.00000
     71      17.6770      0.00000
     72      18.0189      0.00000

 k-point    13 :      -0.3333   -0.3333    0.3333
  band No.  band energies     occupation 
      1     -40.3215      2.00000
      2     -40.3065      2.00000
      3     -40.2964      2.00000
      4     -40.2932      2.00000
      5     -19.0787      2.00000
      6     -19.0408      2.00000
      7     -19.0265      2.00000
      8     -18.9220      2.00000
      9     -18.6644      2.00000
     10     -18.5005      2.00000
     11     -18.4595      2.00000
     12     -18.4283      2.00000
     13     -18.3823      2.00000
     14     -18.3635      2.00000
     15     -18.3223      2.00000
     16     -18.3166      2.00000
     17      -9.8665      2.00000
     18      -9.5944      2.00000
     19      -9.5186      2.00000
     20      -9.4258      2.00000
     21      -8.6281      2.00000
     22      -8.5903      2.00000
     23      -8.4675      2.00000
     24      -8.3345      2.00000
     25       2.5046      2.00000
     26       2.6654      2.00000
     27       2.8080      2.00000
     28       2.8387      2.00000
     29       2.8956      2.00000
     30       3.1362      2.00000
     31       3.3011      2.00000
     32       3.3450      2.00000
     33       3.8588      2.00000
     34       4.0882      2.00000
     35       4.2192      2.00000
     36       4.3875      2.00000
     37       4.7999      2.00000
     38       5.1212      2.00000
     39       5.3259      2.00000
     40       5.4583      2.00000
     41       5.6121      2.00000
     42       5.7195      2.00000
     43       5.8306      2.00000
     44       5.9082      2.00000
     45       6.0407      2.00000
     46       6.2125      2.00000
     47       6.3600      2.00000
     48       6.4925      2.00000
     49      11.2868      0.00000
     50      11.4180      0.00000
     51      11.5158      0.00000
     52      11.6197      0.00000
     53      11.8716      0.00000
     54      11.9240      0.00000
     55      12.2400      0.00000
     56      12.3552      0.00000
     57      13.2606      0.00000
     58      13.3028      0.00000
     59      13.3733      0.00000
     60      13.6588      0.00000
     61      14.4612      0.00000
     62      14.6226      0.00000
     63      14.7229      0.00000
     64      14.9343      0.00000
     65      15.9352      0.00000
     66      16.0617      0.00000
     67      16.5717      0.00000
     68      17.0689      0.00000
     69      17.2175      0.00000
     70      17.6005      0.00000
     71      17.6826      0.00000
     72      18.0268      0.00000

 k-point    14 :       0.3333   -0.3333   -0.3333
  band No.  band energies     occupation 
      1     -40.3215      2.00000
      2     -40.3065      2.00000
      3     -40.2964      2.00000
      4     -40.2932      2.00000
      5     -19.0787      2.00000
      6     -19.0408      2.00000
      7     -19.0265      2.00000
      8     -18.9220      2.00000
      9     -18.6644      2.00000
     10     -18.5005      2.00000
     11     -18.4595      2.00000
     12     -18.4283      2.00000
     13     -18.3823      2.00000
     14     -18.3635      2.00000
     15     -18.3223      2.00000
     16     -18.3166      2.00000
     17      -9.8665      2.00000
     18      -9.5944      2.00000
     19      -9.5186      2.00000
     20      -9.4258      2.00000
     21      -8.6281      2.00000
     22      -8.5903      2.00000
     23      -8.4675      2.00000
     24      -8.3345      2.00000
     25       2.5046      2.00000
     26       2.6654      2.00000
     27       2.8080      2.00000
     28       2.8387      2.00000
     29       2.8956      2.00000
     30       3.1362      2.00000
     31       3.3011      2.00000
     32       3.3450      2.00000
     33       3.8588      2.00000
     34       4.0882      2.00000
     35       4.2192      2.00000
     36       4.3875      2.00000
     37       4.7999      2.00000
     38       5.1212      2.00000
     39       5.3259      2.00000
     40       5.4583      2.00000
     41       5.6121      2.00000
     42       5.7195      2.00000
     43       5.8306      2.00000
     44       5.9082      2.00000
     45       6.0407      2.00000
     46       6.2125      2.00000
     47       6.3600      2.00000
     48       6.4925      2.00000
     49      11.2868      0.00000
     50      11.4181      0.00000
     51      11.5158      0.00000
     52      11.6197      0.00000
     53      11.8716      0.00000
     54      11.9240      0.00000
     55      12.2400      0.00000
     56      12.3552      0.00000
     57      13.2606      0.00000
     58      13.3028      0.00000
     59      13.3734      0.00000
     60      13.6588      0.00000
     61      14.4612      0.00000
     62      14.6226      0.00000
     63      14.7229      0.00000
     64      14.9343      0.00000
     65      15.9351      0.00000
     66      16.0612      0.00000
     67      16.5720      0.00000
     68      17.0677      0.00000
     69      17.2157      0.00000
     70      17.6003      0.00000
     71      17.6765      0.00000
     72      18.0218      0.00000


--------------------------------------------------------------------------------------------------------


 soft charge-density along one line, spin component           1
         0         1         2         3         4         5         6         7         8         9
 total charge-density along one line
 
 pseudopotential strength for first ion, spin component:           1
 33.693  -0.123  -0.004   0.001  -0.009  -0.000   0.000  -0.001
 -0.123  -0.006  -0.000  -0.000  -0.001  -0.000   0.000  -0.000
 -0.004  -0.000   0.019   0.000   0.004   0.220   0.000   0.001
  0.001  -0.000   0.000   0.016  -0.000   0.000   0.219  -0.000
 -0.009  -0.001   0.004  -0.000   0.015   0.001  -0.000   0.219
 -0.000  -0.000   0.220   0.000   0.001   0.249   0.000   0.000
  0.000   0.000   0.000   0.219  -0.000   0.000   0.249  -0.000
 -0.001  -0.000   0.001  -0.000   0.219   0.000  -0.000   0.249
  0.000  -0.000  -0.089  -0.000  -0.000  -0.045  -0.000   0.000
 -0.000  -0.000  -0.000  -0.089   0.000  -0.000  -0.045  -0.000
 -0.000  -0.000  -0.000   0.000  -0.089   0.000  -0.000  -0.045
  0.000  -0.000  -0.004   0.000  -0.000  -0.000   0.000  -0.000
 -0.000  -0.000  -0.000   0.000   0.000   0.000  -0.000   0.000
 -0.000   0.000   0.000  -0.000   0.001   0.000  -0.000   0.000
 -0.000  -0.000   0.000  -0.004   0.000   0.000  -0.000   0.000
 -0.000  -0.000  -0.000   0.000  -0.002   0.000  -0.000  -0.000
  0.001   0.000  -0.000  -0.000  -0.000  -0.000   0.000  -0.000
  0.000   0.000   0.000  -0.000  -0.000   0.000  -0.000   0.000
 -0.000  -0.000   0.000   0.000   0.000   0.000  -0.000   0.000
 -0.000  -0.000  -0.000  -0.000   0.000   0.000  -0.000   0.000
 -0.000  -0.000   0.000  -0.000  -0.000   0.000  -0.000  -0.000
 -0.002  -0.000  -0.000   0.000   0.001   0.000  -0.000   0.000
 -0.000  -0.000  -0.000   0.001   0.000  -0.000   0.000  -0.000
  0.000   0.000  -0.000  -0.000  -0.000  -0.000  -0.000  -0.000
  0.000   0.000   0.000  -0.000  -0.000  -0.000   0.000  -0.000
  0.001   0.000  -0.000   0.000   0.000  -0.000   0.000   0.000
  0.000  -0.000   0.001   0.000  -0.001  -0.000   0.000   0.000
  0.000   0.000   0.000  -0.001   0.000  -0.000   0.000  -0.000
  0.000  -0.000   0.001  -0.000  -0.000  -0.000  -0.000  -0.000
 -0.000  -0.000  -0.000  -0.001   0.000   0.000   0.000   0.000
 -0.001   0.000  -0.000   0.000   0.001  -0.000  -0.000  -0.000
  0.000  -0.000   0.000   0.000  -0.000   0.000  -0.000  -0.000
  0.001  -0.000   0.000  -0.000  -0.001  -0.000   0.000  -0.000
  0.001   0.000   0.004   0.000  -0.006   0.001   0.000  -0.001
 -0.000  -0.000   0.000  -0.005   0.000   0.000  -0.001   0.000
  0.000   0.000   0.003  -0.000   0.000   0.001  -0.000   0.000
  0.000   0.000  -0.000  -0.002   0.000  -0.000  -0.000   0.000
  0.000   0.000   0.000   0.000   0.002   0.000   0.000   0.000
  0.000   0.000   0.000   0.002  -0.000   0.000   0.000  -0.000
 -0.001  -0.000   0.003  -0.000  -0.000   0.001  -0.000  -0.000
 total augmentation occupancy for first ion, spin component:           1
  2.111   0.364  -0.001   0.001   0.029   0.004  -0.002  -0.063  -0.002   0.001   0.025   0.056   0.001  -0.016   0.001  -0.013
  0.364   1.497   0.007  -0.004  -0.110  -0.017   0.007   0.191   0.004  -0.001  -0.035  -0.169  -0.004   0.051  -0.003   0.033
 -0.001   0.007   2.158   0.000  -0.030  -0.336  -0.000   0.070   0.149  -0.000  -0.022  -0.086   0.001   0.015   0.004  -0.004
  0.001  -0.004   0.000   2.179  -0.000  -0.000  -0.384   0.001  -0.000   0.164  -0.000   0.004   0.017  -0.014  -0.082   0.003
  0.029  -0.110  -0.030  -0.000   2.177   0.070   0.001  -0.378  -0.022  -0.000   0.163   0.005   0.004  -0.005   0.006   0.003
  0.004  -0.017  -0.336  -0.000   0.070   0.395  -0.001  -0.131  -0.083  -0.000   0.028   0.141  -0.001  -0.027  -0.007   0.009
 -0.002   0.007  -0.000  -0.384   0.001  -0.001   0.481  -0.002  -0.000  -0.101   0.000  -0.007  -0.036   0.024   0.135  -0.005
 -0.063   0.191   0.070   0.001  -0.378  -0.131  -0.002   0.468   0.027   0.000  -0.100  -0.017  -0.006   0.013  -0.011  -0.013
 -0.002   0.004   0.149  -0.000  -0.022  -0.083  -0.000   0.027   0.021   0.000  -0.007  -0.028   0.000   0.006   0.002  -0.002
  0.001  -0.001  -0.000   0.164  -0.000  -0.000  -0.101   0.000   0.000   0.026  -0.000   0.002   0.008  -0.005  -0.026   0.001
  0.025  -0.035  -0.022  -0.000   0.163   0.028   0.000  -0.100  -0.007  -0.000   0.026   0.005   0.001  -0.003   0.002   0.003
  0.056  -0.169  -0.086   0.004   0.005   0.141  -0.007  -0.017  -0.028   0.002   0.005   0.446   0.002  -0.026   0.008  -0.057
  0.001  -0.004   0.001   0.017   0.004  -0.001  -0.036  -0.006   0.000   0.008   0.001   0.002   0.466  -0.016  -0.107   0.008
 -0.016   0.051   0.015  -0.014  -0.005  -0.027   0.024   0.013   0.006  -0.005  -0.003  -0.026  -0.016   0.234   0.010  -0.004
  0.001  -0.003   0.004  -0.082   0.006  -0.007   0.135  -0.011   0.002  -0.026   0.002   0.008  -0.107   0.010   0.493  -0.008
 -0.013   0.033  -0.004   0.003   0.003   0.009  -0.005  -0.013  -0.002   0.001   0.003  -0.057   0.008  -0.004  -0.008   0.234
  0.034  -0.183  -0.039   0.002  -0.000   0.120  -0.004  -0.009  -0.019   0.001   0.002   0.349  -0.000  -0.007   0.009  -0.043
  0.000  -0.004   0.000   0.011   0.002   0.000  -0.037  -0.004   0.000   0.006   0.001   0.000   0.372  -0.013  -0.118   0.006
 -0.009   0.049   0.005  -0.008  -0.008  -0.019   0.017   0.016   0.003  -0.003  -0.002  -0.005  -0.013   0.168   0.009  -0.005
  0.001  -0.003   0.002  -0.040   0.003  -0.004   0.137  -0.010   0.001  -0.020   0.002   0.009  -0.118   0.009   0.412  -0.007
 -0.007   0.039  -0.005   0.002   0.010   0.003  -0.005  -0.004  -0.001   0.001   0.001  -0.043   0.006  -0.005  -0.007   0.163
 -0.003  -0.010   0.009  -0.000   0.001   0.004  -0.000  -0.001  -0.000   0.000   0.000   0.015   0.000  -0.000   0.000  -0.002
  0.000  -0.000   0.000  -0.000  -0.000  -0.000  -0.002  -0.000   0.000   0.000   0.000   0.000   0.016  -0.001  -0.006   0.000
  0.001   0.003   0.000   0.001  -0.003  -0.001   0.001   0.001   0.000  -0.000  -0.000  -0.000  -0.001   0.007   0.000  -0.000
  0.000  -0.000  -0.000   0.009  -0.000  -0.000   0.005  -0.000   0.000  -0.000   0.000   0.000  -0.006   0.000   0.018  -0.000
  0.001   0.002   0.001  -0.000   0.004  -0.000  -0.000  -0.001   0.000   0.000   0.000  -0.002   0.000  -0.000  -0.000   0.007
  0.000  -0.004  -0.018  -0.001   0.018   0.028   0.002  -0.028  -0.006  -0.000   0.006   0.013  -0.002  -0.001   0.001  -0.001
  0.001  -0.003  -0.001   0.025  -0.002   0.001  -0.043   0.004  -0.000   0.009  -0.001  -0.003   0.044  -0.003  -0.005   0.003
  0.003  -0.012  -0.016   0.002   0.006   0.026  -0.004  -0.014  -0.005   0.001   0.003   0.015   0.003  -0.010  -0.002   0.002
 -0.001   0.004   0.001   0.018  -0.001  -0.003  -0.033   0.003   0.001   0.007  -0.000  -0.001  -0.001  -0.000  -0.013   0.001
 -0.007   0.025   0.007  -0.001  -0.017  -0.014   0.002   0.030   0.003  -0.000  -0.006  -0.005  -0.002   0.015   0.002  -0.000
  0.001  -0.002  -0.001  -0.006   0.001   0.002   0.009  -0.003  -0.000  -0.002   0.001   0.002  -0.002   0.000  -0.001  -0.001
  0.007  -0.025  -0.005   0.000   0.009   0.005  -0.001  -0.018  -0.001   0.000   0.004   0.001   0.002   0.001   0.000   0.010
  0.000  -0.001  -0.002  -0.000   0.000   0.008   0.001  -0.007  -0.001  -0.000   0.001   0.004  -0.000  -0.000   0.000  -0.000
  0.000  -0.001  -0.000   0.002  -0.000   0.000  -0.012   0.001  -0.000   0.002  -0.000  -0.001   0.013  -0.001  -0.002   0.001
  0.001  -0.004  -0.001   0.000   0.001   0.007  -0.001  -0.004  -0.001   0.000   0.001   0.004   0.001  -0.003  -0.001   0.000
 -0.000   0.001   0.000   0.003  -0.000  -0.001  -0.010   0.001   0.000   0.002  -0.000  -0.000  -0.000  -0.000  -0.004   0.000
 -0.002   0.008   0.001  -0.000  -0.002  -0.004   0.001   0.009   0.001  -0.000  -0.002  -0.001  -0.001   0.005   0.001   0.000
  0.000  -0.001  -0.000  -0.000   0.000   0.001   0.003  -0.001  -0.000  -0.000   0.000   0.001  -0.001   0.000   0.000  -0.000
  0.002  -0.008   0.001   0.000   0.002   0.001  -0.000  -0.005  -0.000   0.000   0.001  -0.000   0.000   0.000   0.000   0.003


------------------------ aborting loop because EDIFF is reached ----------------------------------------


     CALCP:  cpu time      3.2288: real time      3.2297
 
            Ionic dipole moment: p[ion]=(    -0.12062     0.00004   -58.62835 ) |e| Angst
 
 Total electronic dipole moment: p[elc]=(     0.11963     0.00001    -2.61968 ) |e| Angst
 
 



 total charge

# of ion       s       p       d       f       tot
--------------------------------------------------
    1        2.691   5.736   0.914   0.055   9.397
    2        2.691   5.736   0.914   0.055   9.397
    3        2.695   5.736   0.914   0.055   9.401
    4        2.695   5.736   0.914   0.055   9.401
    5        1.619   3.672   0.012   0.000   5.303
    6        1.627   3.677   0.015   0.000   5.320
    7        1.627   3.677   0.015   0.000   5.320
    8        1.619   3.672   0.012   0.000   5.303
    9        1.627   3.677   0.015   0.000   5.320
   10        1.619   3.672   0.012   0.000   5.303
   11        1.627   3.677   0.015   0.000   5.320
   12        1.619   3.672   0.012   0.000   5.303
--------------------------------------------------
tot         23.754  52.344   3.765   0.220  80.083
 


--------------------------------------------------------------------------------------------------------



  FREE ENERGIE OF THE ION-ELECTRON SYSTEM (eV)
  ---------------------------------------------------
  free  energy   TOTEN  =      -124.69497383 eV

  energy  without entropy=     -124.69497383  energy(sigma->0) =     -124.69497383
 


--------------------------------------------------------------------------------------------------------




--------------------------------------------------------------------------------------------------------


 stress matrix after NEB project (eV)
      0.00000      0.00000      0.00000
      0.00000      0.00000      0.00000
      0.00000      0.00000      0.00000
  FORCES: max atom, RMS     0.000000    0.000000
  FORCE total and by dimension    0.000000    0.000000
  Stress total and by dimension    0.000000    0.000000
     LOOP+:  cpu time      3.2633: real time      5.2465
    4ORBIT:  cpu time      0.0000: real time      0.0000



 total charge

# of ion       s       p       d       f       tot
--------------------------------------------------
    1        2.691   5.736   0.914   0.055   9.397
    2        2.691   5.736   0.914   0.055   9.397
    3        2.695   5.736   0.914   0.055   9.401
    4        2.695   5.736   0.914   0.055   9.401
    5        1.619   3.672   0.012   0.000   5.303
    6        1.627   3.677   0.015   0.000   5.320
    7        1.627   3.677   0.015   0.000   5.320
    8        1.619   3.672   0.012   0.000   5.303
    9        1.627   3.677   0.015   0.000   5.320
   10        1.619   3.672   0.012   0.000   5.303
   11        1.627   3.677   0.015   0.000   5.320
   12        1.619   3.672   0.012   0.000   5.303
--------------------------------------------------
tot         23.754  52.344   3.765   0.220  80.083
 

 total amount of memory used by VASP MPI-rank0    80781. kBytes
=======================================================================

   base      :      30000. kBytes
   nonl-proj :      41293. kBytes
   fftplans  :       1136. kBytes
   grid      :       4174. kBytes
   one-center:        921. kBytes
   wavefun   :       3257. kBytes
 
  
  
 General timing and accounting informations for this job:
 ========================================================
  
                  Total CPU time used (sec):        5.162
                            User time (sec):        4.894
                          System time (sec):        0.268
                         Elapsed time (sec):        9.898
  
                   Maximum memory used (kb):      233716.
                   Average memory used (kb):          N/A
  
                          Minor page faults:        20203
                          Major page faults:            0
                 Voluntary context switches:         1854
